# Motion State    
# Angle Units     : degrees
# Time            	centreOfRotation	centreOfMass	rotation	velocity	omega
0                 	(2.5000000000e-01 7.0000000000e-03 1.2500000000e-01)	(4.9746127459e-01 -1.6718957439e-02 1.2500000000e-01)	(0.0000000000e+00 0.0000000000e+00 -5.5152851900e+00)	(0.0000000000e+00 0.0000000000e+00 0.0000000000e+00)	(0.0000000000e+00 0.0000000000e+00 -3.3001308177e+01)
1.19904e-05       	(2.5000000000e-01 7.0000000000e-03 1.2500000000e-01)	(4.9746111078e-01 -1.6720666469e-02 1.2500000000e-01)	(0.0000000000e+00 0.0000000000e+00 -5.5156808891e+00)	(0.0000000000e+00 5.3330633322e-06 0.0000000000e+00)	(0.0000000000e+00 0.0000000000e+00 -3.3004037586e+01)
2.62386e-05       	(2.5000000000e-01 7.0000001520e-03 1.2500000000e-01)	(4.9746091607e-01 -1.6722697495e-02 1.2500000000e-01)	(0.0000000000e+00 0.0000000000e+00 -5.5161511772e+00)	(0.0000000000e+00 1.1753075006e-04 0.0000000000e+00)	(0.0000000000e+00 0.0000000000e+00 -3.2995731267e+01)
4.27515e-05       	(2.5000000000e-01 7.0000038574e-03 1.2500000000e-01)	(4.9746069054e-01 -1.6725046229e-02 1.2500000000e-01)	(0.0000000000e+00 0.0000000000e+00 -5.5166958485e+00)	(0.0000000000e+00 2.9426086466e-04 0.0000000000e+00)	(0.0000000000e+00 0.0000000000e+00 -3.2979699363e+01)
6.15034e-05       	(2.5000000000e-01 7.0000106854e-03 1.2500000000e-01)	(4.9746043449e-01 -1.6727710002e-02 1.2500000000e-01)	(0.0000000000e+00 0.0000000000e+00 -5.5173141862e+00)	(0.0000000000e+00 4.0219221261e-04 0.0000000000e+00)	(0.0000000000e+00 0.0000000000e+00 -3.2975002219e+01)
8.2515e-05        	(2.5000000000e-01 7.0000199360e-03 1.2500000000e-01)	(4.9746014753e-01 -1.6730693231e-02 1.2500000000e-01)	(0.0000000000e+00 0.0000000000e+00 -5.5180070507e+00)	(0.0000000000e+00 4.5703230569e-04 0.0000000000e+00)	(0.0000000000e+00 0.0000000000e+00 -3.2979352603e+01)
0.000105158       	(2.5000000000e-01 7.0000306642e-03 1.2500000000e-01)	(4.9745983819e-01 -1.6733908064e-02 1.2500000000e-01)	(0.0000000000e+00 0.0000000000e+00 -5.5187538827e+00)	(0.0000000000e+00 4.7967901750e-04 0.0000000000e+00)	(0.0000000000e+00 0.0000000000e+00 -3.2989448929e+01)
0.0001278         	(2.5000000000e-01 7.0000416584e-03 1.2500000000e-01)	(4.9745952869e-01 -1.6737123809e-02 1.2500000000e-01)	(0.0000000000e+00 0.0000000000e+00 -5.5195009884e+00)	(0.0000000000e+00 4.8843850849e-04 0.0000000000e+00)	(0.0000000000e+00 0.0000000000e+00 -3.3001871558e+01)
0.000150443       	(2.5000000000e-01 7.0000527833e-03 1.2500000000e-01)	(4.9745921903e-01 -1.6740340667e-02 1.2500000000e-01)	(0.0000000000e+00 0.0000000000e+00 -5.5202483830e+00)	(0.0000000000e+00 4.9528700291e-04 0.0000000000e+00)	(0.0000000000e+00 0.0000000000e+00 -3.3014392432e+01)
0.000173086       	(2.5000000000e-01 7.0000640876e-03 1.2500000000e-01)	(4.9745890921e-01 -1.6743558543e-02 1.2500000000e-01)	(0.0000000000e+00 0.0000000000e+00 -5.5209960558e+00)	(0.0000000000e+00 5.0548470909e-04 0.0000000000e+00)	(0.0000000000e+00 0.0000000000e+00 -3.3026301069e+01)
0.000195728       	(2.5000000000e-01 7.0000756743e-03 1.2500000000e-01)	(4.9745859925e-01 -1.6746777260e-02 1.2500000000e-01)	(0.0000000000e+00 0.0000000000e+00 -5.5217439896e+00)	(0.0000000000e+00 5.2008183887e-04 0.0000000000e+00)	(0.0000000000e+00 0.0000000000e+00 -3.3037505473e+01)
0.000218371       	(2.5000000000e-01 7.0000876397e-03 1.2500000000e-01)	(4.9745828913e-01 -1.6749996658e-02 1.2500000000e-01)	(0.0000000000e+00 0.0000000000e+00 -5.5224921698e+00)	(0.0000000000e+00 5.3838137435e-04 0.0000000000e+00)	(0.0000000000e+00 0.0000000000e+00 -3.3048157489e+01)
0.000241014       	(2.5000000000e-01 7.0001000551e-03 1.2500000000e-01)	(4.9745797888e-01 -1.6753216622e-02 1.2500000000e-01)	(0.0000000000e+00 0.0000000000e+00 -5.5232405860e+00)	(0.0000000000e+00 5.5930010029e-04 0.0000000000e+00)	(0.0000000000e+00 0.0000000000e+00 -3.3058445860e+01)
0.000263656       	(2.5000000000e-01 7.0001129678e-03 1.2500000000e-01)	(4.9745766849e-01 -1.6756437077e-02 1.2500000000e-01)	(0.0000000000e+00 0.0000000000e+00 -5.5239892320e+00)	(0.0000000000e+00 5.8189478927e-04 0.0000000000e+00)	(0.0000000000e+00 0.0000000000e+00 -3.3068519692e+01)
0.000286299       	(2.5000000000e-01 7.0001264064e-03 1.2500000000e-01)	(4.9745735797e-01 -1.6759657980e-02 1.2500000000e-01)	(0.0000000000e+00 0.0000000000e+00 -5.5247381045e+00)	(0.0000000000e+00 6.0547557962e-04 0.0000000000e+00)	(0.0000000000e+00 0.0000000000e+00 -3.3078477458e+01)
0.000308942       	(2.5000000000e-01 7.0001403869e-03 1.2500000000e-01)	(4.9745704730e-01 -1.6762879307e-02 1.2500000000e-01)	(0.0000000000e+00 0.0000000000e+00 -5.5254872015e+00)	(0.0000000000e+00 6.2958693983e-04 0.0000000000e+00)	(0.0000000000e+00 0.0000000000e+00 -3.3088377108e+01)
0.000331584       	(2.5000000000e-01 7.0001549175e-03 1.2500000000e-01)	(4.9745673651e-01 -1.6766101046e-02 1.2500000000e-01)	(0.0000000000e+00 0.0000000000e+00 -5.5262365222e+00)	(0.0000000000e+00 6.5396050499e-04 0.0000000000e+00)	(0.0000000000e+00 0.0000000000e+00 -3.3098249190e+01)
0.000354227       	(2.5000000000e-01 7.0001700017e-03 1.2500000000e-01)	(4.9745642558e-01 -1.6769323191e-02 1.2500000000e-01)	(0.0000000000e+00 0.0000000000e+00 -5.5269860663e+00)	(0.0000000000e+00 6.7845234793e-04 0.0000000000e+00)	(0.0000000000e+00 0.0000000000e+00 -3.3108108864e+01)
0.00037687        	(2.5000000000e-01 7.0001856414e-03 1.2500000000e-01)	(4.9745611451e-01 -1.6772545741e-02 1.2500000000e-01)	(0.0000000000e+00 0.0000000000e+00 -5.5277358335e+00)	(0.0000000000e+00 7.0299354396e-04 0.0000000000e+00)	(0.0000000000e+00 0.0000000000e+00 -3.3117963081e+01)
0.000399512       	(2.5000000000e-01 7.0002018370e-03 1.2500000000e-01)	(4.9745580331e-01 -1.6775768695e-02 1.2500000000e-01)	(0.0000000000e+00 0.0000000000e+00 -5.5284858238e+00)	(0.0000000000e+00 7.2755558594e-04 0.0000000000e+00)	(0.0000000000e+00 0.0000000000e+00 -3.3127814339e+01)
0.000422155       	(2.5000000000e-01 7.0002185890e-03 1.2500000000e-01)	(4.9745549197e-01 -1.6778992051e-02 1.2500000000e-01)	(0.0000000000e+00 0.0000000000e+00 -5.5292360372e+00)	(0.0000000000e+00 7.5212951592e-04 0.0000000000e+00)	(0.0000000000e+00 0.0000000000e+00 -3.3137662850e+01)
0.000444798       	(2.5000000000e-01 7.0002358975e-03 1.2500000000e-01)	(4.9745518050e-01 -1.6782215810e-02 1.2500000000e-01)	(0.0000000000e+00 0.0000000000e+00 -5.5299864735e+00)	(0.0000000000e+00 7.7671642702e-04 0.0000000000e+00)	(0.0000000000e+00 0.0000000000e+00 -3.3147507896e+01)
0.00046744        	(2.5000000000e-01 7.0002537628e-03 1.2500000000e-01)	(4.9745486889e-01 -1.6785439970e-02 1.2500000000e-01)	(0.0000000000e+00 0.0000000000e+00 -5.5307371326e+00)	(0.0000000000e+00 8.0132167131e-04 0.0000000000e+00)	(0.0000000000e+00 0.0000000000e+00 -3.3157348581e+01)
0.000490083       	(2.5000000000e-01 7.0002721856e-03 1.2500000000e-01)	(4.9745455715e-01 -1.6788664531e-02 1.2500000000e-01)	(0.0000000000e+00 0.0000000000e+00 -5.5314880146e+00)	(0.0000000000e+00 8.2595110948e-04 0.0000000000e+00)	(0.0000000000e+00 0.0000000000e+00 -3.3167184122e+01)
0.000512726       	(2.5000000000e-01 7.0002911663e-03 1.2500000000e-01)	(4.9745424528e-01 -1.6791889491e-02 1.2500000000e-01)	(0.0000000000e+00 0.0000000000e+00 -5.5322391192e+00)	(0.0000000000e+00 8.5060922472e-04 0.0000000000e+00)	(0.0000000000e+00 0.0000000000e+00 -3.3177013944e+01)
0.000535368       	(2.5000000000e-01 7.0003107057e-03 1.2500000000e-01)	(4.9745393326e-01 -1.6795114850e-02 1.2500000000e-01)	(0.0000000000e+00 0.0000000000e+00 -5.5329904463e+00)	(0.0000000000e+00 8.7529876738e-04 0.0000000000e+00)	(0.0000000000e+00 0.0000000000e+00 -3.3186837727e+01)
0.000558011       	(2.5000000000e-01 7.0003308045e-03 1.2500000000e-01)	(4.9745362112e-01 -1.6798340605e-02 1.2500000000e-01)	(0.0000000000e+00 0.0000000000e+00 -5.5337419957e+00)	(0.0000000000e+00 9.0002091389e-04 0.0000000000e+00)	(0.0000000000e+00 0.0000000000e+00 -3.3196655348e+01)
0.000580654       	(2.5000000000e-01 7.0003514634e-03 1.2500000000e-01)	(4.9745330884e-01 -1.6801566757e-02 1.2500000000e-01)	(0.0000000000e+00 0.0000000000e+00 -5.5344937674e+00)	(0.0000000000e+00 9.2477557523e-04 0.0000000000e+00)	(0.0000000000e+00 0.0000000000e+00 -3.3206466808e+01)
0.000603296       	(2.5000000000e-01 7.0003726832e-03 1.2500000000e-01)	(4.9745299642e-01 -1.6804793302e-02 1.2500000000e-01)	(0.0000000000e+00 0.0000000000e+00 -5.5352457612e+00)	(0.0000000000e+00 9.4956198917e-04 0.0000000000e+00)	(0.0000000000e+00 0.0000000000e+00 -3.3216272255e+01)
0.000625939       	(2.5000000000e-01 7.0003944646e-03 1.2500000000e-01)	(4.9745268387e-01 -1.6808020240e-02 1.2500000000e-01)	(0.0000000000e+00 0.0000000000e+00 -5.5359979769e+00)	(0.0000000000e+00 9.7437898898e-04 0.0000000000e+00)	(0.0000000000e+00 0.0000000000e+00 -3.3226071925e+01)
0.000648581       	(2.5000000000e-01 7.0004168083e-03 1.2500000000e-01)	(4.9745237118e-01 -1.6811247570e-02 1.2500000000e-01)	(0.0000000000e+00 0.0000000000e+00 -5.5367504145e+00)	(0.0000000000e+00 9.9922525905e-04 0.0000000000e+00)	(0.0000000000e+00 0.0000000000e+00 -3.3235866053e+01)
0.000671224       	(2.5000000000e-01 7.0004397149e-03 1.2500000000e-01)	(4.9745205836e-01 -1.6814475290e-02 1.2500000000e-01)	(0.0000000000e+00 0.0000000000e+00 -5.5375030738e+00)	(0.0000000000e+00 1.0240993345e-03 0.0000000000e+00)	(0.0000000000e+00 0.0000000000e+00 -3.3245654863e+01)
0.000693867       	(2.5000000000e-01 7.0004631850e-03 1.2500000000e-01)	(4.9745174541e-01 -1.6817703400e-02 1.2500000000e-01)	(0.0000000000e+00 0.0000000000e+00 -5.5382559546e+00)	(0.0000000000e+00 1.0489997406e-03 0.0000000000e+00)	(0.0000000000e+00 0.0000000000e+00 -3.3255438574e+01)
0.000716509       	(2.5000000000e-01 7.0004872191e-03 1.2500000000e-01)	(4.9745143232e-01 -1.6820931898e-02 1.2500000000e-01)	(0.0000000000e+00 0.0000000000e+00 -5.5390090569e+00)	(0.0000000000e+00 1.0739251742e-03 0.0000000000e+00)	(0.0000000000e+00 0.0000000000e+00 -3.3265217384e+01)
0.000739152       	(2.5000000000e-01 7.0005118180e-03 1.2500000000e-01)	(4.9745111909e-01 -1.6824160783e-02 1.2500000000e-01)	(0.0000000000e+00 0.0000000000e+00 -5.5397623806e+00)	(0.0000000000e+00 1.0988746487e-03 0.0000000000e+00)	(0.0000000000e+00 0.0000000000e+00 -3.3274991469e+01)
0.000761795       	(2.5000000000e-01 7.0005369820e-03 1.2500000000e-01)	(4.9745080573e-01 -1.6827390054e-02 1.2500000000e-01)	(0.0000000000e+00 0.0000000000e+00 -5.5405159255e+00)	(0.0000000000e+00 1.1238474200e-03 0.0000000000e+00)	(0.0000000000e+00 0.0000000000e+00 -3.3284760962e+01)
0.000784437       	(2.5000000000e-01 7.0005627118e-03 1.2500000000e-01)	(4.9745049224e-01 -1.6830619711e-02 1.2500000000e-01)	(0.0000000000e+00 0.0000000000e+00 -5.5412696916e+00)	(0.0000000000e+00 1.1488429234e-03 0.0000000000e+00)	(0.0000000000e+00 0.0000000000e+00 -3.3294525945e+01)
0.00080708        	(2.5000000000e-01 7.0005890078e-03 1.2500000000e-01)	(4.9745017861e-01 -1.6833849752e-02 1.2500000000e-01)	(0.0000000000e+00 0.0000000000e+00 -5.5420236788e+00)	(0.0000000000e+00 1.1738606622e-03 0.0000000000e+00)	(0.0000000000e+00 0.0000000000e+00 -3.3304286466e+01)
0.000829723       	(2.5000000000e-01 7.0006158704e-03 1.2500000000e-01)	(4.9744986485e-01 -1.6837080177e-02 1.2500000000e-01)	(0.0000000000e+00 0.0000000000e+00 -5.5427778869e+00)	(0.0000000000e+00 1.1989002185e-03 0.0000000000e+00)	(0.0000000000e+00 0.0000000000e+00 -3.3314042561e+01)
0.000852365       	(2.5000000000e-01 7.0006433003e-03 1.2500000000e-01)	(4.9744955095e-01 -1.6840310984e-02 1.2500000000e-01)	(0.0000000000e+00 0.0000000000e+00 -5.5435323159e+00)	(0.0000000000e+00 1.2239613923e-03 0.0000000000e+00)	(0.0000000000e+00 0.0000000000e+00 -3.3323794275e+01)
0.000875008       	(2.5000000000e-01 7.0006712979e-03 1.2500000000e-01)	(4.9744923691e-01 -1.6843542173e-02 1.2500000000e-01)	(0.0000000000e+00 0.0000000000e+00 -5.5442869656e+00)	(0.0000000000e+00 1.2490440280e-03 0.0000000000e+00)	(0.0000000000e+00 0.0000000000e+00 -3.3333541658e+01)
0.000897651       	(2.5000000000e-01 7.0006998637e-03 1.2500000000e-01)	(4.9744892275e-01 -1.6846773742e-02 1.2500000000e-01)	(0.0000000000e+00 0.0000000000e+00 -5.5450418360e+00)	(0.0000000000e+00 1.2741479172e-03 0.0000000000e+00)	(0.0000000000e+00 0.0000000000e+00 -3.3343284757e+01)
0.000920293       	(2.5000000000e-01 7.0007289981e-03 1.2500000000e-01)	(4.9744860844e-01 -1.6850005691e-02 1.2500000000e-01)	(0.0000000000e+00 0.0000000000e+00 -5.5457969269e+00)	(0.0000000000e+00 1.2992728232e-03 0.0000000000e+00)	(0.0000000000e+00 0.0000000000e+00 -3.3353023620e+01)
0.000942936       	(2.5000000000e-01 7.0007587017e-03 1.2500000000e-01)	(4.9744829400e-01 -1.6853238019e-02 1.2500000000e-01)	(0.0000000000e+00 0.0000000000e+00 -5.5465522383e+00)	(0.0000000000e+00 1.3244185445e-03 0.0000000000e+00)	(0.0000000000e+00 0.0000000000e+00 -3.3362758288e+01)
0.000965579       	(2.5000000000e-01 7.0007889748e-03 1.2500000000e-01)	(4.9744797943e-01 -1.6856470725e-02 1.2500000000e-01)	(0.0000000000e+00 0.0000000000e+00 -5.5473077701e+00)	(0.0000000000e+00 1.3495849658e-03 0.0000000000e+00)	(0.0000000000e+00 0.0000000000e+00 -3.3372488774e+01)
0.000988221       	(2.5000000000e-01 7.0008198181e-03 1.2500000000e-01)	(4.9744766472e-01 -1.6859703808e-02 1.2500000000e-01)	(0.0000000000e+00 0.0000000000e+00 -5.5480635221e+00)	(0.0000000000e+00 1.3747720742e-03 0.0000000000e+00)	(0.0000000000e+00 0.0000000000e+00 -3.3382215066e+01)
0.00101086        	(2.5000000000e-01 7.0008512318e-03 1.2500000000e-01)	(4.9744734988e-01 -1.6862937267e-02 1.2500000000e-01)	(0.0000000000e+00 0.0000000000e+00 -5.5488194943e+00)	(0.0000000000e+00 1.3999799143e-03 0.0000000000e+00)	(0.0000000000e+00 0.0000000000e+00 -3.3391937155e+01)
0.00103351        	(2.5000000000e-01 7.0008832166e-03 1.2500000000e-01)	(4.9744703491e-01 -1.6866171102e-02 1.2500000000e-01)	(0.0000000000e+00 0.0000000000e+00 -5.5495756867e+00)	(0.0000000000e+00 1.4252084798e-03 0.0000000000e+00)	(0.0000000000e+00 0.0000000000e+00 -3.3401655037e+01)
0.00105615        	(2.5000000000e-01 7.0009157729e-03 1.2500000000e-01)	(4.9744671979e-01 -1.6869405311e-02 1.2500000000e-01)	(0.0000000000e+00 0.0000000000e+00 -5.5503320990e+00)	(0.0000000000e+00 1.4504576203e-03 0.0000000000e+00)	(0.0000000000e+00 0.0000000000e+00 -3.3411368714e+01)
0.00107879        	(2.5000000000e-01 7.0009489010e-03 1.2500000000e-01)	(4.9744640455e-01 -1.6872639893e-02 1.2500000000e-01)	(0.0000000000e+00 0.0000000000e+00 -5.5510887312e+00)	(0.0000000000e+00 1.4757272792e-03 0.0000000000e+00)	(0.0000000000e+00 0.0000000000e+00 -3.3421078190e+01)
0.00110143        	(2.5000000000e-01 7.0009826016e-03 1.2500000000e-01)	(4.9744608917e-01 -1.6875874849e-02 1.2500000000e-01)	(0.0000000000e+00 0.0000000000e+00 -5.5518455832e+00)	(0.0000000000e+00 1.5010175593e-03 0.0000000000e+00)	(0.0000000000e+00 0.0000000000e+00 -3.3430783462e+01)
0.00112408        	(2.5000000000e-01 7.0010168751e-03 1.2500000000e-01)	(4.9744577365e-01 -1.6879110176e-02 1.2500000000e-01)	(0.0000000000e+00 0.0000000000e+00 -5.5526026549e+00)	(0.0000000000e+00 1.5263285666e-03 0.0000000000e+00)	(0.0000000000e+00 0.0000000000e+00 -3.3440484535e+01)
0.00114672        	(2.5000000000e-01 7.0010517219e-03 1.2500000000e-01)	(4.9744545800e-01 -1.6882345874e-02 1.2500000000e-01)	(0.0000000000e+00 0.0000000000e+00 -5.5533599462e+00)	(0.0000000000e+00 1.5516603275e-03 0.0000000000e+00)	(0.0000000000e+00 0.0000000000e+00 -3.3450181409e+01)
0.00116936        	(2.5000000000e-01 7.0010871425e-03 1.2500000000e-01)	(4.9744514221e-01 -1.6885581942e-02 1.2500000000e-01)	(0.0000000000e+00 0.0000000000e+00 -5.5541174571e+00)	(0.0000000000e+00 1.5770127850e-03 0.0000000000e+00)	(0.0000000000e+00 0.0000000000e+00 -3.3459874076e+01)
0.00119201        	(2.5000000000e-01 7.0011231374e-03 1.2500000000e-01)	(4.9744482629e-01 -1.6888818379e-02 1.2500000000e-01)	(0.0000000000e+00 0.0000000000e+00 -5.5548751873e+00)	(0.0000000000e+00 1.6023859148e-03 0.0000000000e+00)	(0.0000000000e+00 0.0000000000e+00 -3.3469562534e+01)
0.00121465        	(2.5000000000e-01 7.0011597071e-03 1.2500000000e-01)	(4.9744451024e-01 -1.6892055185e-02 1.2500000000e-01)	(0.0000000000e+00 0.0000000000e+00 -5.5556331369e+00)	(0.0000000000e+00 1.6277796873e-03 0.0000000000e+00)	(0.0000000000e+00 0.0000000000e+00 -3.3479246784e+01)
0.00123729        	(2.5000000000e-01 7.0011968520e-03 1.2500000000e-01)	(4.9744419405e-01 -1.6895292358e-02 1.2500000000e-01)	(0.0000000000e+00 0.0000000000e+00 -5.5563913057e+00)	(0.0000000000e+00 1.6531939569e-03 0.0000000000e+00)	(0.0000000000e+00 0.0000000000e+00 -3.3488926834e+01)
0.00125993        	(2.5000000000e-01 7.0012345725e-03 1.2500000000e-01)	(4.9744387772e-01 -1.6898529897e-02 1.2500000000e-01)	(0.0000000000e+00 0.0000000000e+00 -5.5571496937e+00)	(0.0000000000e+00 1.6786284498e-03 0.0000000000e+00)	(0.0000000000e+00 0.0000000000e+00 -3.3498602691e+01)
0.00128258        	(2.5000000000e-01 7.0012728692e-03 1.2500000000e-01)	(4.9744356127e-01 -1.6901767802e-02 1.2500000000e-01)	(0.0000000000e+00 0.0000000000e+00 -5.5579083006e+00)	(0.0000000000e+00 1.7040830340e-03 0.0000000000e+00)	(0.0000000000e+00 0.0000000000e+00 -3.3508274367e+01)
0.00130522        	(2.5000000000e-01 7.0013117425e-03 1.2500000000e-01)	(4.9744324467e-01 -1.6905006072e-02 1.2500000000e-01)	(0.0000000000e+00 0.0000000000e+00 -5.5586671266e+00)	(0.0000000000e+00 1.7295577817e-03 0.0000000000e+00)	(0.0000000000e+00 0.0000000000e+00 -3.3517941881e+01)
0.00132786        	(2.5000000000e-01 7.0013511928e-03 1.2500000000e-01)	(4.9744292794e-01 -1.6908244706e-02 1.2500000000e-01)	(0.0000000000e+00 0.0000000000e+00 -5.5594261714e+00)	(0.0000000000e+00 1.7550527172e-03 0.0000000000e+00)	(0.0000000000e+00 0.0000000000e+00 -3.3527605249e+01)
0.0013505         	(2.5000000000e-01 7.0013912206e-03 1.2500000000e-01)	(4.9744261108e-01 -1.6911483703e-02 1.2500000000e-01)	(0.0000000000e+00 0.0000000000e+00 -5.5601854349e+00)	(0.0000000000e+00 1.7805677214e-03 0.0000000000e+00)	(0.0000000000e+00 0.0000000000e+00 -3.3537264483e+01)
0.00137315        	(2.5000000000e-01 7.0014318263e-03 1.2500000000e-01)	(4.9744229408e-01 -1.6914723062e-02 1.2500000000e-01)	(0.0000000000e+00 0.0000000000e+00 -5.5609449171e+00)	(0.0000000000e+00 1.8061026648e-03 0.0000000000e+00)	(0.0000000000e+00 0.0000000000e+00 -3.3546919595e+01)
0.00139579        	(2.5000000000e-01 7.0014730105e-03 1.2500000000e-01)	(4.9744197695e-01 -1.6917962782e-02 1.2500000000e-01)	(0.0000000000e+00 0.0000000000e+00 -5.5617046179e+00)	(0.0000000000e+00 1.8316574469e-03 0.0000000000e+00)	(0.0000000000e+00 0.0000000000e+00 -3.3556570592e+01)
0.00141843        	(2.5000000000e-01 7.0015147735e-03 1.2500000000e-01)	(4.9744165968e-01 -1.6921202863e-02 1.2500000000e-01)	(0.0000000000e+00 0.0000000000e+00 -5.5624645371e+00)	(0.0000000000e+00 1.8572320135e-03 0.0000000000e+00)	(0.0000000000e+00 0.0000000000e+00 -3.3566217485e+01)
0.00144107        	(2.5000000000e-01 7.0015571159e-03 1.2500000000e-01)	(4.9744134228e-01 -1.6924443303e-02 1.2500000000e-01)	(0.0000000000e+00 0.0000000000e+00 -5.5632246748e+00)	(0.0000000000e+00 1.8828263561e-03 0.0000000000e+00)	(0.0000000000e+00 0.0000000000e+00 -3.3575860278e+01)
0.00146372        	(2.5000000000e-01 7.0016000379e-03 1.2500000000e-01)	(4.9744102474e-01 -1.6927684103e-02 1.2500000000e-01)	(0.0000000000e+00 0.0000000000e+00 -5.5639850307e+00)	(0.0000000000e+00 1.9084404492e-03 0.0000000000e+00)	(0.0000000000e+00 0.0000000000e+00 -3.3585498975e+01)
0.00148636        	(2.5000000000e-01 7.0016435402e-03 1.2500000000e-01)	(4.9744070707e-01 -1.6930925260e-02 1.2500000000e-01)	(0.0000000000e+00 0.0000000000e+00 -5.5647456048e+00)	(0.0000000000e+00 1.9340743174e-03 0.0000000000e+00)	(0.0000000000e+00 0.0000000000e+00 -3.3595133584e+01)
0.001509          	(2.5000000000e-01 7.0016876231e-03 1.2500000000e-01)	(4.9744038926e-01 -1.6934166774e-02 1.2500000000e-01)	(0.0000000000e+00 0.0000000000e+00 -5.5655063971e+00)	(0.0000000000e+00 1.9597279949e-03 0.0000000000e+00)	(0.0000000000e+00 0.0000000000e+00 -3.3604764113e+01)
0.00153165        	(2.5000000000e-01 7.0017322871e-03 1.2500000000e-01)	(4.9744007132e-01 -1.6937408644e-02 1.2500000000e-01)	(0.0000000000e+00 0.0000000000e+00 -5.5662674073e+00)	(0.0000000000e+00 1.9854014836e-03 0.0000000000e+00)	(0.0000000000e+00 0.0000000000e+00 -3.3614390573e+01)
0.00155429        	(2.5000000000e-01 7.0017775326e-03 1.2500000000e-01)	(4.9743975325e-01 -1.6940650870e-02 1.2500000000e-01)	(0.0000000000e+00 0.0000000000e+00 -5.5670286355e+00)	(0.0000000000e+00 2.0110947852e-03 0.0000000000e+00)	(0.0000000000e+00 0.0000000000e+00 -3.3624012974e+01)
0.00157693        	(2.5000000000e-01 7.0018233602e-03 1.2500000000e-01)	(4.9743943504e-01 -1.6943893450e-02 1.2500000000e-01)	(0.0000000000e+00 0.0000000000e+00 -5.5677900815e+00)	(0.0000000000e+00 2.0368079267e-03 0.0000000000e+00)	(0.0000000000e+00 0.0000000000e+00 -3.3633631324e+01)
0.00159957        	(2.5000000000e-01 7.0018697701e-03 1.2500000000e-01)	(4.9743911669e-01 -1.6947136384e-02 1.2500000000e-01)	(0.0000000000e+00 0.0000000000e+00 -5.5685517452e+00)	(0.0000000000e+00 2.0625409368e-03 0.0000000000e+00)	(0.0000000000e+00 0.0000000000e+00 -3.3643245625e+01)
0.00162222        	(2.5000000000e-01 7.0019167630e-03 1.2500000000e-01)	(4.9743879821e-01 -1.6950379671e-02 1.2500000000e-01)	(0.0000000000e+00 0.0000000000e+00 -5.5693136266e+00)	(0.0000000000e+00 2.0882938308e-03 0.0000000000e+00)	(0.0000000000e+00 0.0000000000e+00 -3.3652855878e+01)
0.00164486        	(2.5000000000e-01 7.0019643392e-03 1.2500000000e-01)	(4.9743847960e-01 -1.6953623310e-02 1.2500000000e-01)	(0.0000000000e+00 0.0000000000e+00 -5.5700757256e+00)	(0.0000000000e+00 2.1140666356e-03 0.0000000000e+00)	(0.0000000000e+00 0.0000000000e+00 -3.3662462084e+01)
0.0016675         	(2.5000000000e-01 7.0020124992e-03 1.2500000000e-01)	(4.9743816085e-01 -1.6956867300e-02 1.2500000000e-01)	(0.0000000000e+00 0.0000000000e+00 -5.5708380420e+00)	(0.0000000000e+00 2.1398593890e-03 0.0000000000e+00)	(0.0000000000e+00 0.0000000000e+00 -3.3672064247e+01)
0.00169014        	(2.5000000000e-01 7.0020612434e-03 1.2500000000e-01)	(4.9743784196e-01 -1.6960111640e-02 1.2500000000e-01)	(0.0000000000e+00 0.0000000000e+00 -5.5716005758e+00)	(0.0000000000e+00 2.1656721338e-03 0.0000000000e+00)	(0.0000000000e+00 0.0000000000e+00 -3.3681662373e+01)
0.00171279        	(2.5000000000e-01 7.0021105723e-03 1.2500000000e-01)	(4.9743752295e-01 -1.6963356329e-02 1.2500000000e-01)	(0.0000000000e+00 0.0000000000e+00 -5.5723633268e+00)	(0.0000000000e+00 2.1915048878e-03 0.0000000000e+00)	(0.0000000000e+00 0.0000000000e+00 -3.3691256466e+01)
0.00173537        	(2.5000000000e-01 7.0021603504e-03 1.2500000000e-01)	(4.9743720466e-01 -1.6966592525e-02 1.2500000000e-01)	(0.0000000000e+00 0.0000000000e+00 -5.5731242161e+00)	(0.0000000000e+00 2.2173224185e-03 0.0000000000e+00)	(0.0000000000e+00 0.0000000000e+00 -3.3700833474e+01)
0.00175795        	(2.5000000000e-01 7.0022107109e-03 1.2500000000e-01)	(4.9743688624e-01 -1.6969829067e-02 1.2500000000e-01)	(0.0000000000e+00 0.0000000000e+00 -5.5738853214e+00)	(0.0000000000e+00 2.2431248749e-03 0.0000000000e+00)	(0.0000000000e+00 0.0000000000e+00 -3.3710393433e+01)
0.00178053        	(2.5000000000e-01 7.0022616542e-03 1.2500000000e-01)	(4.9743656769e-01 -1.6973065954e-02 1.2500000000e-01)	(0.0000000000e+00 0.0000000000e+00 -5.5746466424e+00)	(0.0000000000e+00 2.2689472565e-03 0.0000000000e+00)	(0.0000000000e+00 0.0000000000e+00 -3.3719949412e+01)
0.00180311        	(2.5000000000e-01 7.0023131809e-03 1.2500000000e-01)	(4.9743624901e-01 -1.6976303185e-02 1.2500000000e-01)	(0.0000000000e+00 0.0000000000e+00 -5.5754081793e+00)	(0.0000000000e+00 2.2947891652e-03 0.0000000000e+00)	(0.0000000000e+00 0.0000000000e+00 -3.3729501369e+01)
0.00182569        	(2.5000000000e-01 7.0023652913e-03 1.2500000000e-01)	(4.9743593019e-01 -1.6979540759e-02 1.2500000000e-01)	(0.0000000000e+00 0.0000000000e+00 -5.5761699317e+00)	(0.0000000000e+00 2.3206507700e-03 0.0000000000e+00)	(0.0000000000e+00 0.0000000000e+00 -3.3739049298e+01)
0.00184827        	(2.5000000000e-01 7.0024179860e-03 1.2500000000e-01)	(4.9743561123e-01 -1.6982778676e-02 1.2500000000e-01)	(0.0000000000e+00 0.0000000000e+00 -5.5769318997e+00)	(0.0000000000e+00 2.3465322947e-03 0.0000000000e+00)	(0.0000000000e+00 0.0000000000e+00 -3.3748593209e+01)
0.00187085        	(2.5000000000e-01 7.0024712653e-03 1.2500000000e-01)	(4.9743529215e-01 -1.6986016934e-02 1.2500000000e-01)	(0.0000000000e+00 0.0000000000e+00 -5.5776940832e+00)	(0.0000000000e+00 2.3724337614e-03 0.0000000000e+00)	(0.0000000000e+00 0.0000000000e+00 -3.3758133113e+01)
0.00189343        	(2.5000000000e-01 7.0025251297e-03 1.2500000000e-01)	(4.9743497292e-01 -1.6989255533e-02 1.2500000000e-01)	(0.0000000000e+00 0.0000000000e+00 -5.5784564820e+00)	(0.0000000000e+00 2.3983550615e-03 0.0000000000e+00)	(0.0000000000e+00 0.0000000000e+00 -3.3767669014e+01)
0.00191602        	(2.5000000000e-01 7.0025795796e-03 1.2500000000e-01)	(4.9743465357e-01 -1.6992494472e-02 1.2500000000e-01)	(0.0000000000e+00 0.0000000000e+00 -5.5792190962e+00)	(0.0000000000e+00 2.4242960332e-03 0.0000000000e+00)	(0.0000000000e+00 0.0000000000e+00 -3.3777200912e+01)
0.0019386         	(2.5000000000e-01 7.0026346155e-03 1.2500000000e-01)	(4.9743433408e-01 -1.6995733750e-02 1.2500000000e-01)	(0.0000000000e+00 0.0000000000e+00 -5.5799819255e+00)	(0.0000000000e+00 2.4502565381e-03 0.0000000000e+00)	(0.0000000000e+00 0.0000000000e+00 -3.3786728812e+01)
0.00196118        	(2.5000000000e-01 7.0026902379e-03 1.2500000000e-01)	(4.9743401446e-01 -1.6998973367e-02 1.2500000000e-01)	(0.0000000000e+00 0.0000000000e+00 -5.5807449699e+00)	(0.0000000000e+00 2.4762363851e-03 0.0000000000e+00)	(0.0000000000e+00 0.0000000000e+00 -3.3796252718e+01)
0.00198376        	(2.5000000000e-01 7.0027464471e-03 1.2500000000e-01)	(4.9743369470e-01 -1.7002213321e-02 1.2500000000e-01)	(0.0000000000e+00 0.0000000000e+00 -5.5815082294e+00)	(0.0000000000e+00 2.5022354151e-03 0.0000000000e+00)	(0.0000000000e+00 0.0000000000e+00 -3.3805772631e+01)
0.00200634        	(2.5000000000e-01 7.0028032437e-03 1.2500000000e-01)	(4.9743337481e-01 -1.7005453611e-02 1.2500000000e-01)	(0.0000000000e+00 0.0000000000e+00 -5.5822717038e+00)	(0.0000000000e+00 2.5282535688e-03 0.0000000000e+00)	(0.0000000000e+00 0.0000000000e+00 -3.3815288554e+01)
0.00202892        	(2.5000000000e-01 7.0028606279e-03 1.2500000000e-01)	(4.9743305478e-01 -1.7008694237e-02 1.2500000000e-01)	(0.0000000000e+00 0.0000000000e+00 -5.5830353930e+00)	(0.0000000000e+00 2.5542907591e-03 0.0000000000e+00)	(0.0000000000e+00 0.0000000000e+00 -3.3824800488e+01)
0.0020515         	(2.5000000000e-01 7.0029186004e-03 1.2500000000e-01)	(4.9743273462e-01 -1.7011935198e-02 1.2500000000e-01)	(0.0000000000e+00 0.0000000000e+00 -5.5837992969e+00)	(0.0000000000e+00 2.5803468242e-03 0.0000000000e+00)	(0.0000000000e+00 0.0000000000e+00 -3.3834308431e+01)
0.00207408        	(2.5000000000e-01 7.0029771614e-03 1.2500000000e-01)	(4.9743241433e-01 -1.7015176493e-02 1.2500000000e-01)	(0.0000000000e+00 0.0000000000e+00 -5.5845634155e+00)	(0.0000000000e+00 2.6064215746e-03 0.0000000000e+00)	(0.0000000000e+00 0.0000000000e+00 -3.3843812381e+01)
0.00209666        	(2.5000000000e-01 7.0030363114e-03 1.2500000000e-01)	(4.9743209390e-01 -1.7018418122e-02 1.2500000000e-01)	(0.0000000000e+00 0.0000000000e+00 -5.5853277487e+00)	(0.0000000000e+00 2.6325148290e-03 0.0000000000e+00)	(0.0000000000e+00 0.0000000000e+00 -3.3853312337e+01)
0.00211924        	(2.5000000000e-01 7.0030960508e-03 1.2500000000e-01)	(4.9743177334e-01 -1.7021660083e-02 1.2500000000e-01)	(0.0000000000e+00 0.0000000000e+00 -5.5860922963e+00)	(0.0000000000e+00 2.6586264250e-03 0.0000000000e+00)	(0.0000000000e+00 0.0000000000e+00 -3.3862808299e+01)
0.00214182        	(2.5000000000e-01 7.0031563801e-03 1.2500000000e-01)	(4.9743145264e-01 -1.7024902375e-02 1.2500000000e-01)	(0.0000000000e+00 0.0000000000e+00 -5.5868570583e+00)	(0.0000000000e+00 2.6847562148e-03 0.0000000000e+00)	(0.0000000000e+00 0.0000000000e+00 -3.3872300268e+01)
0.00216441        	(2.5000000000e-01 7.0032172996e-03 1.2500000000e-01)	(4.9743113181e-01 -1.7028144999e-02 1.2500000000e-01)	(0.0000000000e+00 0.0000000000e+00 -5.5876220346e+00)	(0.0000000000e+00 2.7109040578e-03 0.0000000000e+00)	(0.0000000000e+00 0.0000000000e+00 -3.3881788245e+01)
0.00218699        	(2.5000000000e-01 7.0032788097e-03 1.2500000000e-01)	(4.9743081085e-01 -1.7031387953e-02 1.2500000000e-01)	(0.0000000000e+00 0.0000000000e+00 -5.5883872252e+00)	(0.0000000000e+00 2.7370698242e-03 0.0000000000e+00)	(0.0000000000e+00 0.0000000000e+00 -3.3891272231e+01)
0.00220957        	(2.5000000000e-01 7.0033409109e-03 1.2500000000e-01)	(4.9743048975e-01 -1.7034631236e-02 1.2500000000e-01)	(0.0000000000e+00 0.0000000000e+00 -5.5891526298e+00)	(0.0000000000e+00 2.7632533937e-03 0.0000000000e+00)	(0.0000000000e+00 0.0000000000e+00 -3.3900752231e+01)
0.00223215        	(2.5000000000e-01 7.0034036036e-03 1.2500000000e-01)	(4.9743016852e-01 -1.7037874847e-02 1.2500000000e-01)	(0.0000000000e+00 0.0000000000e+00 -5.5899182484e+00)	(0.0000000000e+00 2.7894545823e-03 0.0000000000e+00)	(0.0000000000e+00 0.0000000000e+00 -3.3910228248e+01)
0.00225473        	(2.5000000000e-01 7.0034668881e-03 1.2500000000e-01)	(4.9742984716e-01 -1.7041118787e-02 1.2500000000e-01)	(0.0000000000e+00 0.0000000000e+00 -5.5906840810e+00)	(0.0000000000e+00 2.8156731573e-03 0.0000000000e+00)	(0.0000000000e+00 0.0000000000e+00 -3.3919700283e+01)
0.00227731        	(2.5000000000e-01 7.0035307648e-03 1.2500000000e-01)	(4.9742952566e-01 -1.7044363053e-02 1.2500000000e-01)	(0.0000000000e+00 0.0000000000e+00 -5.5914501274e+00)	(0.0000000000e+00 2.8419089195e-03 0.0000000000e+00)	(0.0000000000e+00 0.0000000000e+00 -3.3929168337e+01)
0.00229989        	(2.5000000000e-01 7.0035952342e-03 1.2500000000e-01)	(4.9742920403e-01 -1.7047607645e-02 1.2500000000e-01)	(0.0000000000e+00 0.0000000000e+00 -5.5922163876e+00)	(0.0000000000e+00 2.8681616973e-03 0.0000000000e+00)	(0.0000000000e+00 0.0000000000e+00 -3.3938632413e+01)