# Forces      
# CofR        : (4.974613e-01 -1.671896e-02 1.250000e-01)
# Time        forces(pressure viscous)	moments(pressure viscous)
0             	((0.000000e+00 0.000000e+00 0.000000e+00) (1.746032e+00 4.978621e-02 1.808886e-20)) ((0.000000e+00 0.000000e+00 0.000000e+00) (-1.669122e-19 3.879601e-18 1.371212e-02))
10            	((-2.232040e+02 1.137030e+02 -3.592692e-16) (2.224928e+00 -1.663644e+00 -6.164464e-19)) ((2.959275e-16 -6.484684e-16 -2.498857e+02) (-1.798406e-18 -7.421748e-19 5.119449e-01))
20            	((-7.884242e+01 4.028531e+02 -8.259107e-17) (1.128034e+00 -1.174161e-01 3.402087e-19)) ((-1.450999e-15 -5.518704e-16 -8.640102e+01) (2.542090e-18 2.705793e-18 -4.764316e-03))
30            	((-7.512724e+01 1.801214e+02 -3.489776e-17) (6.494332e-01 -1.193129e-01 -1.112270e-19)) ((-7.390506e-16 -4.304889e-16 -7.209272e+01) (9.278957e-19 1.122174e-19 7.761483e-03))
40            	((-2.377193e+01 2.095577e+02 5.543429e-18) (6.526619e-01 -1.336211e-01 -1.339802e-19)) ((-6.631124e-16 -5.456905e-17 -5.274307e+01) (8.467870e-19 9.855759e-19 2.164195e-02))
50            	((5.646768e+00 2.445649e+02 1.348715e-17) (6.427330e-01 -1.342224e-01 -7.645530e-20)) ((-2.597291e-16 5.755949e-17 -3.813896e+01) (7.489852e-19 1.842366e-18 3.281182e-02))
60            	((1.088154e+01 2.511039e+02 7.198901e-18) (7.901870e-01 -6.173812e-02 6.804580e-20)) ((2.183755e-16 3.912293e-17 -3.834410e+01) (2.225859e-20 3.706754e-18 2.270497e-04))
70            	((1.751317e+01 2.624378e+02 7.888939e-18) (8.716911e-01 -1.986689e-02 1.018593e-19)) ((-2.810944e-17 2.388572e-17 -3.155916e+01) (4.850105e-20 2.928365e-18 -1.783214e-02))
80            	((2.192563e+01 2.797763e+02 8.203568e-18) (9.577496e-01 1.618638e-02 -2.503718e-21)) ((-6.376733e-16 6.714207e-17 -2.699506e+01) (-2.687921e-19 1.222533e-18 -3.403764e-02))
90            	((2.417673e+01 2.804065e+02 1.158687e-17) (1.040964e+00 3.722591e-02 -8.285079e-20)) ((-9.648778e-16 1.181492e-16 -1.941465e+01) (-6.240825e-19 2.838269e-19 -4.516883e-02))
100           	((2.547295e+01 2.861248e+02 1.384339e-17) (1.099641e+00 5.223632e-02 -6.059768e-20)) ((-1.167610e-15 1.598576e-16 -1.289511e+01) (-8.342279e-19 1.683242e-19 -5.162232e-02))
110           	((2.440505e+01 2.720251e+02 1.458273e-17) (1.149482e+00 6.325192e-02 -6.698683e-20)) ((-8.373535e-16 9.110884e-17 -7.958553e+00) (-6.869125e-19 1.376027e-18 -5.454550e-02))
120           	((1.431247e+01 1.948674e+02 1.021540e-17) (1.247543e+00 4.694196e-02 3.640586e-20)) ((-5.122856e-16 2.402454e-17 -1.447191e+01) (-5.174857e-19 1.994736e-18 -6.027940e-02))
130           	((-5.076621e+00 3.935360e+01 -2.051280e-18) (1.445431e+00 -1.414763e-02 1.418913e-19)) ((-8.990188e-17 -4.262317e-17 -3.209401e+01) (-2.169209e-19 2.459902e-18 -6.919793e-02))
140           	((1.554220e+00 6.816298e+01 4.946123e-18) (1.496689e+00 -4.446832e-02 4.178365e-20)) ((-1.383198e-16 2.696752e-17 -1.905917e+01) (-5.647107e-20 2.486451e-18 -6.409693e-02))
150           	((5.583041e+00 9.369856e+01 8.070636e-18) (1.497318e+00 -4.907456e-02 1.958215e-20)) ((-1.788427e-16 6.175863e-17 -1.521252e+01) (-1.268182e-20 2.427607e-18 -6.057472e-02))
160           	((8.100521e+00 1.234758e+02 8.890729e-18) (1.494684e+00 -4.411440e-02 1.393690e-20)) ((-2.330625e-16 7.170329e-17 -1.433563e+01) (-1.482984e-20 2.461655e-18 -6.074895e-02))
170           	((8.092111e+00 1.438644e+02 8.068481e-18) (1.496631e+00 -3.525794e-02 2.263779e-20)) ((-2.641258e-16 6.190401e-17 -1.752506e+01) (-6.229035e-20 2.511592e-18 -6.389128e-02))
180           	((7.692615e+00 1.594765e+02 7.408638e-18) (1.508825e+00 -2.949175e-02 2.977827e-20)) ((-2.949967e-16 4.944877e-17 -2.084072e+01) (-8.452011e-20 2.662472e-18 -6.834735e-02))
190           	((7.686117e+00 1.750820e+02 6.787909e-18) (1.520490e+00 -2.464063e-02 3.615018e-20)) ((-3.342651e-16 3.992357e-17 -2.282614e+01) (-1.084794e-19 2.771788e-18 -7.242267e-02))
200           	((7.645639e+00 1.875803e+02 6.347772e-18) (1.532159e+00 -2.099394e-02 4.100096e-20)) ((-3.770396e-16 3.243960e-17 -2.435120e+01) (-1.343693e-19 2.817785e-18 -7.599009e-02))
210           	((7.626173e+00 1.978070e+02 6.018636e-18) (1.542817e+00 -1.833393e-02 4.505694e-20)) ((-4.133722e-16 2.615194e-17 -2.540131e+01) (-1.594151e-19 2.826025e-18 -7.898970e-02))
220           	((7.696764e+00 2.068100e+02 5.766856e-18) (1.550471e+00 -1.564205e-02 4.895459e-20)) ((-4.415646e-16 2.090708e-17 -2.607423e+01) (-1.846831e-19 2.818783e-18 -8.128213e-02))
230           	((7.655740e+00 2.138633e+02 5.456546e-18) (1.555165e+00 -1.272402e-02 5.336252e-20)) ((-4.608120e-16 1.562760e-17 -2.674455e+01) (-2.083706e-19 2.812747e-18 -8.301881e-02))
240           	((7.394848e+00 2.186420e+02 5.057207e-18) (1.557679e+00 -1.009660e-02 5.797047e-20)) ((-4.726808e-16 9.827376e-18 -2.759947e+01) (-2.278833e-19 2.814000e-18 -8.436057e-02))
250           	((6.994111e+00 2.214165e+02 4.633781e-18) (1.559134e+00 -8.193174e-03 6.210299e-20)) ((-4.795022e-16 4.144402e-18 -2.850524e+01) (-2.413569e-19 2.825555e-18 -8.552177e-02))
260           	((6.617562e+00 2.230528e+02 4.285347e-18) (1.560390e+00 -7.210685e-03 6.522930e-20)) ((-4.837874e-16 -4.536217e-19 -2.926500e+01) (-2.481899e-19 2.847704e-18 -8.659710e-02))
270           	((6.361293e+00 2.243222e+02 4.050844e-18) (1.561804e+00 -7.004404e-03 6.735603e-20)) ((-4.872414e-16 -3.610992e-18 -2.979910e+01) (-2.494354e-19 2.877857e-18 -8.761174e-02))
280           	((6.221536e+00 2.256259e+02 3.908265e-18) (1.563498e+00 -7.281199e-03 6.881428e-20)) ((-4.907686e-16 -5.636634e-18 -3.016101e+01) (-2.472064e-19 2.912389e-18 -8.857820e-02))
290           	((6.153159e+00 2.270796e+02 3.816231e-18) (1.565432e+00 -7.780368e-03 6.995383e-20)) ((-4.946578e-16 -7.057478e-18 -3.043227e+01) (-2.434346e-19 2.948165e-18 -8.949859e-02))
300           	((6.117477e+00 2.286724e+02 3.742839e-18) (1.567423e+00 -8.324236e-03 7.102252e-20)) ((-4.988726e-16 -8.267563e-18 -3.066599e+01) (-2.394331e-19 2.982921e-18 -9.036374e-02))
310           	((6.091105e+00 2.303319e+02 3.671219e-18) (1.569277e+00 -8.817862e-03 7.213515e-20)) ((-5.032312e-16 -9.462544e-18 -3.088668e+01) (-2.359076e-19 3.015005e-18 -9.116102e-02))
320           	((6.063178e+00 2.319702e+02 3.596212e-18) (1.570858e+00 -9.223797e-03 7.330082e-20)) ((-5.075328e-16 -1.069232e-17 -3.110061e+01) (-2.331598e-19 3.043234e-18 -9.188139e-02))
330           	((6.032129e+00 2.335227e+02 3.519788e-18) (1.572111e+00 -9.537880e-03 7.447376e-20)) ((-5.116301e-16 -1.192618e-17 -3.130365e+01) (-2.312117e-19 3.066946e-18 -9.251816e-02))
340           	((6.000700e+00 2.349573e+02 3.445970e-18) (1.573037e+00 -9.760974e-03 7.560524e-20)) ((-5.154415e-16 -1.311213e-17 -3.148960e+01) (-2.300376e-19 3.086121e-18 -9.307160e-02))
350           	((5.970656e+00 2.362604e+02 3.377058e-18) (1.573678e+00 -9.898591e-03 7.666573e-20)) ((-5.189195e-16 -1.421842e-17 -3.165642e+01) (-2.295305e-19 3.101253e-18 -9.354658e-02))
360           	((5.941228e+00 2.374225e+02 3.313066e-18) (1.574097e+00 -9.962734e-03 7.764401e-20)) ((-5.220296e-16 -1.523975e-17 -3.180648e+01) (-2.295346e-19 3.113116e-18 -9.395138e-02))
370           	((5.910721e+00 2.384366e+02 3.253162e-18) (1.574355e+00 -9.975821e-03 7.853861e-20)) ((-5.247491e-16 -1.618202e-17 -3.194330e+01) (-2.298529e-19 3.122511e-18 -9.429401e-02))
380           	((5.878589e+00 2.393029e+02 3.197211e-18) (1.574499e+00 -9.963676e-03 7.934707e-20)) ((-5.270785e-16 -1.704645e-17 -3.206870e+01) (-2.302965e-19 3.130123e-18 -9.458233e-02))
390           	((5.845884e+00 2.400317e+02 3.145800e-18) (1.574582e+00 -9.940018e-03 8.006439e-20)) ((-5.290456e-16 -1.782719e-17 -3.218258e+01) (-2.307608e-19 3.136553e-18 -9.482914e-02))
400           	((5.814441e+00 2.406412e+02 3.099789e-18) (1.574646e+00 -9.919042e-03 8.068996e-20)) ((-5.306981e-16 -1.851728e-17 -3.228415e+01) (-2.311501e-19 3.142223e-18 -9.504326e-02))
410           	((5.785903e+00 2.411537e+02 3.059686e-18) (1.574714e+00 -9.909060e-03 8.122753e-20)) ((-5.320929e-16 -1.911495e-17 -3.237307e+01) (-2.314164e-19 3.147400e-18 -9.523144e-02))
420           	((5.761174e+00 2.415906e+02 3.025393e-18) (1.574799e+00 -9.912643e-03 8.168593e-20)) ((-5.332847e-16 -1.962570e-17 -3.244991e+01) (-2.315513e-19 3.152226e-18 -9.539859e-02))
430           	((5.740377e+00 2.419697e+02 2.996294e-18) (1.574903e+00 -9.928442e-03 8.207755e-20)) ((-5.343194e-16 -2.006049e-17 -3.251599e+01) (-2.315731e-19 3.156761e-18 -9.554803e-02))
440           	((5.723082e+00 2.423040e+02 2.971529e-18) (1.575019e+00 -9.953067e-03 8.241501e-20)) ((-5.352315e-16 -2.043254e-17 -3.257297e+01) (-2.315126e-19 3.161009e-18 -9.568212e-02))
450           	((5.708658e+00 2.426023e+02 2.950239e-18) (1.575141e+00 -9.982791e-03 8.270934e-20)) ((-5.360450e-16 -2.075420e-17 -3.262247e+01) (-2.314018e-19 3.164948e-18 -9.580254e-02))
460           	((5.696498e+00 2.428705e+02 2.931724e-18) (1.575261e+00 -1.001436e-02 8.296896e-20)) ((-5.367759e-16 -2.103540e-17 -3.266577e+01) (-2.312682e-19 3.168553e-18 -9.591051e-02))
470           	((5.686129e+00 2.431124e+02 2.915464e-18) (1.575374e+00 -1.004528e-02 8.319992e-20)) ((-5.374349e-16 -2.128346e-17 -3.270385e+01) (-2.311328e-19 3.171801e-18 -9.600694e-02))
480           	((5.677192e+00 2.433306e+02 2.901087e-18) (1.575474e+00 -1.007379e-02 8.340644e-20)) ((-5.380294e-16 -2.150364e-17 -3.273746e+01) (-2.310100e-19 3.174687e-18 -9.609267e-02))
490           	((5.669403e+00 2.435272e+02 2.888308e-18) (1.575561e+00 -1.009873e-02 8.359163e-20)) ((-5.385648e-16 -2.169992e-17 -3.276720e+01) (-2.309080e-19 3.177220e-18 -9.616856e-02))
500           	((5.662526e+00 2.437035e+02 2.876900e-18) (1.575634e+00 -1.011964e-02 8.375783e-20)) ((-5.390450e-16 -2.187538e-17 -3.279358e+01) (-2.308298e-19 3.179423e-18 -9.623549e-02))
510           	((5.656372e+00 2.438609e+02 2.866683e-18) (1.575694e+00 -1.013656e-02 8.390690e-20)) ((-5.394736e-16 -2.203250e-17 -3.281705e+01) (-2.307741e-19 3.181329e-18 -9.629433e-02))
520           	((5.650807e+00 2.440005e+02 2.857520e-18) (1.575743e+00 -1.014995e-02 8.404032e-20)) ((-5.398540e-16 -2.217318e-17 -3.283795e+01) (-2.307374e-19 3.182975e-18 -9.634597e-02))
530           	((5.645747e+00 2.441238e+02 2.849311e-18) (1.575783e+00 -1.016048e-02 8.415932e-20)) ((-5.401898e-16 -2.229891e-17 -3.285658e+01) (-2.307147e-19 3.184399e-18 -9.639124e-02))
540           	((5.641150e+00 2.442321e+02 2.841977e-18) (1.575816e+00 -1.016885e-02 8.426503e-20)) ((-5.404851e-16 -2.241090e-17 -3.287314e+01) (-2.307013e-19 3.185635e-18 -9.643096e-02))
550           	((5.636993e+00 2.443270e+02 2.835454e-18) (1.575844e+00 -1.017571e-02 8.435854e-20)) ((-5.407440e-16 -2.251026e-17 -3.288783e+01) (-2.306928e-19 3.186715e-18 -9.646584e-02))
560           	((5.633265e+00 2.444101e+02 2.829678e-18) (1.575868e+00 -1.018157e-02 8.444068e-20)) ((-5.409708e-16 -2.259806e-17 -3.290084e+01) (-2.306862e-19 3.187664e-18 -9.649653e-02))
570           	((5.629947e+00 2.444829e+02 2.824583e-18) (1.575889e+00 -1.018677e-02 8.451269e-20)) ((-5.411695e-16 -2.267541e-17 -3.291231e+01) (-2.306794e-19 3.188502e-18 -9.652358e-02))
580           	((5.627013e+00 2.445467e+02 2.820101e-18) (1.575908e+00 -1.019154e-02 8.457593e-20)) ((-5.413438e-16 -2.274341e-17 -3.292242e+01) (-2.306718e-19 3.189247e-18 -9.654747e-02))
590           	((5.624433e+00 2.446028e+02 2.816163e-18) (1.575926e+00 -1.019600e-02 8.463148e-20)) ((-5.414971e-16 -2.280316e-17 -3.293132e+01) (-2.306630e-19 3.189910e-18 -9.656860e-02))
600           	((5.622170e+00 2.446522e+02 2.812705e-18) (1.575942e+00 -1.020019e-02 8.468031e-20)) ((-5.416322e-16 -2.285565e-17 -3.293916e+01) (-2.306533e-19 3.190501e-18 -9.658730e-02))
610           	((5.620190e+00 2.446959e+02 2.809666e-18) (1.575957e+00 -1.020412e-02 8.472329e-20)) ((-5.417515e-16 -2.290181e-17 -3.294606e+01) (-2.306431e-19 3.191029e-18 -9.660387e-02))
620           	((5.618458e+00 2.447345e+02 2.806994e-18) (1.575970e+00 -1.020775e-02 8.476117e-20)) ((-5.418571e-16 -2.294244e-17 -3.295213e+01) (-2.306329e-19 3.191498e-18 -9.661854e-02))
630           	((5.616942e+00 2.447687e+02 2.804640e-18) (1.575983e+00 -1.021106e-02 8.479462e-20)) ((-5.419505e-16 -2.297826e-17 -3.295749e+01) (-2.306233e-19 3.191915e-18 -9.663153e-02))
640           	((5.615611e+00 2.447990e+02 2.802564e-18) (1.575994e+00 -1.021405e-02 8.482420e-20)) ((-5.420334e-16 -2.300989e-17 -3.296222e+01) (-2.306144e-19 3.192284e-18 -9.664303e-02))
650           	((5.614442e+00 2.448259e+02 2.800729e-18) (1.576003e+00 -1.021670e-02 8.485037e-20)) ((-5.421069e-16 -2.303785e-17 -3.296639e+01) (-2.306066e-19 3.192611e-18 -9.665319e-02))
660           	((5.613410e+00 2.448498e+02 2.799107e-18) (1.576012e+00 -1.021904e-02 8.487355e-20)) ((-5.421720e-16 -2.306258e-17 -3.297008e+01) (-2.305999e-19 3.192899e-18 -9.666217e-02))
670           	((5.612498e+00 2.448709e+02 2.797671e-18) (1.576019e+00 -1.022107e-02 8.489408e-20)) ((-5.422296e-16 -2.308448e-17 -3.297334e+01) (-2.305943e-19 3.193152e-18 -9.667010e-02))
680           	((5.611689e+00 2.448895e+02 2.796400e-18) (1.576026e+00 -1.022283e-02 8.491226e-20)) ((-5.422806e-16 -2.310387e-17 -3.297622e+01) (-2.305896e-19 3.193375e-18 -9.667710e-02))
690           	((5.610972e+00 2.449060e+02 2.795274e-18) (1.576031e+00 -1.022435e-02 8.492835e-20)) ((-5.423256e-16 -2.312104e-17 -3.297877e+01) (-2.305857e-19 3.193571e-18 -9.668327e-02))
700           	((5.610336e+00 2.449206e+02 2.794277e-18) (1.576036e+00 -1.022567e-02 8.494259e-20)) ((-5.423654e-16 -2.313623e-17 -3.298103e+01) (-2.305824e-19 3.193744e-18 -9.668872e-02))
710           	((5.609772e+00 2.449334e+02 2.793395e-18) (1.576041e+00 -1.022681e-02 8.495517e-20)) ((-5.424005e-16 -2.314966e-17 -3.298302e+01) (-2.305797e-19 3.193896e-18 -9.669352e-02))
720           	((5.609272e+00 2.449448e+02 2.792615e-18) (1.576044e+00 -1.022781e-02 8.496628e-20)) ((-5.424315e-16 -2.316153e-17 -3.298479e+01) (-2.305774e-19 3.194030e-18 -9.669776e-02))
730           	((5.608829e+00 2.449548e+02 2.791927e-18) (1.576048e+00 -1.022869e-02 8.497609e-20)) ((-5.424588e-16 -2.317202e-17 -3.298635e+01) (-2.305753e-19 3.194148e-18 -9.670150e-02))
740           	((5.608438e+00 2.449636e+02 2.791318e-18) (1.576051e+00 -1.022947e-02 8.498474e-20)) ((-5.424829e-16 -2.318127e-17 -3.298772e+01) (-2.305735e-19 3.194253e-18 -9.670480e-02))
750           	((5.608092e+00 2.449714e+02 2.790782e-18) (1.576053e+00 -1.023016e-02 8.499238e-20)) ((-5.425042e-16 -2.318944e-17 -3.298894e+01) (-2.305718e-19 3.194345e-18 -9.670772e-02))
760           	((5.607787e+00 2.449782e+02 2.790308e-18) (1.576056e+00 -1.023077e-02 8.499912e-20)) ((-5.425229e-16 -2.319665e-17 -3.299001e+01) (-2.305703e-19 3.194427e-18 -9.671030e-02))
770           	((5.607517e+00 2.449843e+02 2.789890e-18) (1.576058e+00 -1.023132e-02 8.500507e-20)) ((-5.425395e-16 -2.320301e-17 -3.299096e+01) (-2.305690e-19 3.194499e-18 -9.671258e-02))
780           	((5.607280e+00 2.449897e+02 2.789521e-18) (1.576059e+00 -1.023181e-02 8.501032e-20)) ((-5.425541e-16 -2.320863e-17 -3.299179e+01) (-2.305677e-19 3.194563e-18 -9.671459e-02))
790           	((5.607071e+00 2.449944e+02 2.789195e-18) (1.576061e+00 -1.023226e-02 8.501496e-20)) ((-5.425671e-16 -2.321358e-17 -3.299253e+01) (-2.305665e-19 3.194620e-18 -9.671638e-02))
800           	((5.606886e+00 2.449986e+02 2.788908e-18) (1.576063e+00 -1.023265e-02 8.501905e-20)) ((-5.425785e-16 -2.321796e-17 -3.299318e+01) (-2.305655e-19 3.194670e-18 -9.671796e-02))
810           	((5.606724e+00 2.450023e+02 2.788654e-18) (1.576064e+00 -1.023301e-02 8.502267e-20)) ((-5.425886e-16 -2.322182e-17 -3.299375e+01) (-2.305645e-19 3.194715e-18 -9.671935e-02))
820           	((5.606580e+00 2.450055e+02 2.788430e-18) (1.576065e+00 -1.023332e-02 8.502587e-20)) ((-5.425975e-16 -2.322524e-17 -3.299426e+01) (-2.305637e-19 3.194754e-18 -9.672058e-02))
830           	((5.606453e+00 2.450084e+02 2.788232e-18) (1.576066e+00 -1.023359e-02 8.502870e-20)) ((-5.426054e-16 -2.322826e-17 -3.299471e+01) (-2.305629e-19 3.194789e-18 -9.672167e-02))
840           	((5.606341e+00 2.450110e+02 2.788057e-18) (1.576067e+00 -1.023383e-02 8.503120e-20)) ((-5.426124e-16 -2.323092e-17 -3.299511e+01) (-2.305623e-19 3.194819e-18 -9.672262e-02))
850           	((5.606242e+00 2.450132e+02 2.787902e-18) (1.576068e+00 -1.023405e-02 8.503340e-20)) ((-5.426185e-16 -2.323328e-17 -3.299546e+01) (-2.305617e-19 3.194846e-18 -9.672348e-02))
860           	((5.606154e+00 2.450152e+02 2.787765e-18) (1.576069e+00 -1.023424e-02 8.503535e-20)) ((-5.426240e-16 -2.323536e-17 -3.299577e+01) (-2.305612e-19 3.194870e-18 -9.672423e-02))
870           	((5.606077e+00 2.450170e+02 2.787644e-18) (1.576069e+00 -1.023441e-02 8.503707e-20)) ((-5.426288e-16 -2.323720e-17 -3.299604e+01) (-2.305607e-19 3.194891e-18 -9.672489e-02))
880           	((5.606009e+00 2.450185e+02 2.787538e-18) (1.576070e+00 -1.023456e-02 8.503859e-20)) ((-5.426330e-16 -2.323882e-17 -3.299628e+01) (-2.305603e-19 3.194910e-18 -9.672548e-02))
890           	((5.605949e+00 2.450199e+02 2.787444e-18) (1.576070e+00 -1.023470e-02 8.503993e-20)) ((-5.426368e-16 -2.324025e-17 -3.299650e+01) (-2.305599e-19 3.194927e-18 -9.672599e-02))
900           	((5.605896e+00 2.450211e+02 2.787360e-18) (1.576071e+00 -1.023481e-02 8.504112e-20)) ((-5.426401e-16 -2.324152e-17 -3.299669e+01) (-2.305596e-19 3.194941e-18 -9.672645e-02))
910           	((5.605847e+00 2.450222e+02 2.787287e-18) (1.576071e+00 -1.023491e-02 8.504217e-20)) ((-5.426430e-16 -2.324264e-17 -3.299685e+01) (-2.305594e-19 3.194954e-18 -9.672685e-02))
920           	((5.605807e+00 2.450231e+02 2.787222e-18) (1.576071e+00 -1.023500e-02 8.504309e-20)) ((-5.426456e-16 -2.324362e-17 -3.299700e+01) (-2.305592e-19 3.194965e-18 -9.672720e-02))
930           	((5.605770e+00 2.450240e+02 2.787165e-18) (1.576072e+00 -1.023508e-02 8.504391e-20)) ((-5.426479e-16 -2.324450e-17 -3.299713e+01) (-2.305589e-19 3.194975e-18 -9.672752e-02))
940           	((5.605737e+00 2.450247e+02 2.787114e-18) (1.576072e+00 -1.023515e-02 8.504463e-20)) ((-5.426499e-16 -2.324527e-17 -3.299724e+01) (-2.305587e-19 3.194984e-18 -9.672781e-02))
950           	((5.605708e+00 2.450254e+02 2.787068e-18) (1.576072e+00 -1.023522e-02 8.504528e-20)) ((-5.426517e-16 -2.324596e-17 -3.299734e+01) (-2.305585e-19 3.194992e-18 -9.672805e-02))
960           	((5.605684e+00 2.450259e+02 2.787031e-18) (1.576072e+00 -1.023528e-02 8.504582e-20)) ((-5.426532e-16 -2.324653e-17 -3.299743e+01) (-2.305583e-19 3.194999e-18 -9.672827e-02))
970           	((5.605661e+00 2.450264e+02 2.786994e-18) (1.576073e+00 -1.023533e-02 8.504633e-20)) ((-5.426547e-16 -2.324709e-17 -3.299751e+01) (-2.305582e-19 3.195005e-18 -9.672846e-02))
980           	((5.605642e+00 2.450269e+02 2.786964e-18) (1.576073e+00 -1.023537e-02 8.504677e-20)) ((-5.426558e-16 -2.324754e-17 -3.299758e+01) (-2.305581e-19 3.195011e-18 -9.672863e-02))
990           	((5.605625e+00 2.450273e+02 2.786937e-18) (1.576073e+00 -1.023541e-02 8.504716e-20)) ((-5.426569e-16 -2.324796e-17 -3.299764e+01) (-2.305580e-19 3.195015e-18 -9.672877e-02))
1000          	((5.605609e+00 2.450276e+02 2.786913e-18) (1.576073e+00 -1.023544e-02 8.504750e-20)) ((-5.426579e-16 -2.324833e-17 -3.299770e+01) (-2.305579e-19 3.195020e-18 -9.672890e-02))
1010          	((5.605596e+00 2.450279e+02 2.786893e-18) (1.576073e+00 -1.023546e-02 8.504780e-20)) ((-5.426587e-16 -2.324864e-17 -3.299774e+01) (-2.305579e-19 3.195023e-18 -9.672901e-02))
1020          	((5.605584e+00 2.450282e+02 2.786874e-18) (1.576073e+00 -1.023548e-02 8.504806e-20)) ((-5.426595e-16 -2.324892e-17 -3.299779e+01) (-2.305579e-19 3.195026e-18 -9.672911e-02))
1030          	((5.605573e+00 2.450284e+02 2.786857e-18) (1.576073e+00 -1.023550e-02 8.504830e-20)) ((-5.426601e-16 -2.324918e-17 -3.299782e+01) (-2.305578e-19 3.195029e-18 -9.672920e-02))
1040          	((5.605564e+00 2.450287e+02 2.786843e-18) (1.576073e+00 -1.023552e-02 8.504850e-20)) ((-5.426607e-16 -2.324940e-17 -3.299786e+01) (-2.305578e-19 3.195031e-18 -9.672928e-02))
1050          	((5.605555e+00 2.450289e+02 2.786830e-18) (1.576073e+00 -1.023554e-02 8.504869e-20)) ((-5.426612e-16 -2.324960e-17 -3.299789e+01) (-2.305577e-19 3.195034e-18 -9.672936e-02))
1060          	((5.605549e+00 2.450290e+02 2.786819e-18) (1.576073e+00 -1.023556e-02 8.504885e-20)) ((-5.426617e-16 -2.324977e-17 -3.299791e+01) (-2.305577e-19 3.195036e-18 -9.672942e-02))
1070          	((5.605543e+00 2.450291e+02 2.786810e-18) (1.576074e+00 -1.023557e-02 8.504895e-20)) ((-5.426620e-16 -2.324990e-17 -3.299793e+01) (-2.305576e-19 3.195037e-18 -9.672948e-02))
1080          	((5.605537e+00 2.450293e+02 2.786801e-18) (1.576074e+00 -1.023559e-02 8.504910e-20)) ((-5.426624e-16 -2.325004e-17 -3.299795e+01) (-2.305575e-19 3.195039e-18 -9.672953e-02))
1090          	((5.605533e+00 2.450294e+02 2.786793e-18) (1.576074e+00 -1.023560e-02 8.504921e-20)) ((-5.426627e-16 -2.325016e-17 -3.299797e+01) (-2.305575e-19 3.195040e-18 -9.672957e-02))
1100          	((5.605528e+00 2.450295e+02 2.786786e-18) (1.576074e+00 -1.023561e-02 8.504928e-20)) ((-5.426630e-16 -2.325026e-17 -3.299798e+01) (-2.305575e-19 3.195041e-18 -9.672961e-02))
1110          	((5.605524e+00 2.450296e+02 2.786780e-18) (1.576074e+00 -1.023562e-02 8.504937e-20)) ((-5.426632e-16 -2.325035e-17 -3.299800e+01) (-2.305574e-19 3.195043e-18 -9.672964e-02))
1120          	((5.605520e+00 2.450296e+02 2.786775e-18) (1.576074e+00 -1.023563e-02 8.504945e-20)) ((-5.426634e-16 -2.325043e-17 -3.299801e+01) (-2.305574e-19 3.195044e-18 -9.672967e-02))
1130          	((5.605519e+00 2.450297e+02 2.786771e-18) (1.576074e+00 -1.023564e-02 8.504951e-20)) ((-5.426636e-16 -2.325049e-17 -3.299802e+01) (-2.305574e-19 3.195044e-18 -9.672970e-02))
1140          	((5.605516e+00 2.450298e+02 2.786767e-18) (1.576074e+00 -1.023565e-02 8.504955e-20)) ((-5.426638e-16 -2.325055e-17 -3.299803e+01) (-2.305573e-19 3.195045e-18 -9.672972e-02))
1150          	((5.605513e+00 2.450298e+02 2.786763e-18) (1.576074e+00 -1.023566e-02 8.504961e-20)) ((-5.426639e-16 -2.325061e-17 -3.299804e+01) (-2.305573e-19 3.195046e-18 -9.672974e-02))
1160          	((5.605512e+00 2.450299e+02 2.786760e-18) (1.576074e+00 -1.023567e-02 8.504967e-20)) ((-5.426640e-16 -2.325065e-17 -3.299804e+01) (-2.305572e-19 3.195046e-18 -9.672975e-02))
1170          	((5.605510e+00 2.450299e+02 2.786758e-18) (1.576074e+00 -1.023568e-02 8.504970e-20)) ((-5.426641e-16 -2.325069e-17 -3.299805e+01) (-2.305572e-19 3.195047e-18 -9.672977e-02))
1180          	((5.605508e+00 2.450299e+02 2.786755e-18) (1.576074e+00 -1.023567e-02 8.504974e-20)) ((-5.426642e-16 -2.325074e-17 -3.299805e+01) (-2.305573e-19 3.195047e-18 -9.672979e-02))
1190          	((5.605505e+00 2.450300e+02 2.786752e-18) (1.576074e+00 -1.023568e-02 8.504978e-20)) ((-5.426643e-16 -2.325078e-17 -3.299806e+01) (-2.305572e-19 3.195048e-18 -9.672979e-02))
1200          	((5.605504e+00 2.450300e+02 2.786751e-18) (1.576074e+00 -1.023568e-02 8.504980e-20)) ((-5.426643e-16 -2.325080e-17 -3.299806e+01) (-2.305572e-19 3.195048e-18 -9.672980e-02))
1210          	((5.605505e+00 2.450300e+02 2.786750e-18) (1.576074e+00 -1.023568e-02 8.504981e-20)) ((-5.426644e-16 -2.325081e-17 -3.299807e+01) (-2.305572e-19 3.195048e-18 -9.672982e-02))
1220          	((5.605505e+00 2.450300e+02 2.786749e-18) (1.576074e+00 -1.023569e-02 8.504983e-20)) ((-5.426645e-16 -2.325082e-17 -3.299807e+01) (-2.305572e-19 3.195049e-18 -9.672982e-02))
1230          	((5.605503e+00 2.450300e+02 2.786747e-18) (1.576074e+00 -1.023569e-02 8.504985e-20)) ((-5.426645e-16 -2.325085e-17 -3.299807e+01) (-2.305572e-19 3.195049e-18 -9.672983e-02))
1240          	((5.605503e+00 2.450301e+02 2.786747e-18) (1.576074e+00 -1.023569e-02 8.504986e-20)) ((-5.426646e-16 -2.325086e-17 -3.299807e+01) (-2.305571e-19 3.195049e-18 -9.672984e-02))
1250          	((5.605502e+00 2.450301e+02 2.786745e-18) (1.576074e+00 -1.023570e-02 8.504988e-20)) ((-5.426646e-16 -2.325088e-17 -3.299808e+01) (-2.305571e-19 3.195049e-18 -9.672985e-02))
1260          	((5.605500e+00 2.450301e+02 2.786744e-18) (1.576074e+00 -1.023570e-02 8.504990e-20)) ((-5.426646e-16 -2.325091e-17 -3.299808e+01) (-2.305571e-19 3.195050e-18 -9.672985e-02))
1270          	((5.605499e+00 2.450301e+02 2.786743e-18) (1.576074e+00 -1.023570e-02 8.504991e-20)) ((-5.426646e-16 -2.325092e-17 -3.299808e+01) (-2.305572e-19 3.195050e-18 -9.672986e-02))
1280          	((5.605499e+00 2.450301e+02 2.786742e-18) (1.576074e+00 -1.023570e-02 8.504993e-20)) ((-5.426647e-16 -2.325093e-17 -3.299808e+01) (-2.305572e-19 3.195050e-18 -9.672986e-02))
1290          	((5.605498e+00 2.450301e+02 2.786741e-18) (1.576074e+00 -1.023570e-02 8.504994e-20)) ((-5.426647e-16 -2.325095e-17 -3.299808e+01) (-2.305572e-19 3.195050e-18 -9.672986e-02))
1300          	((5.605498e+00 2.450301e+02 2.786740e-18) (1.576074e+00 -1.023569e-02 8.504995e-20)) ((-5.426647e-16 -2.325096e-17 -3.299809e+01) (-2.305572e-19 3.195050e-18 -9.672987e-02))
1310          	((5.605497e+00 2.450301e+02 2.786740e-18) (1.576074e+00 -1.023569e-02 8.504996e-20)) ((-5.426648e-16 -2.325097e-17 -3.299809e+01) (-2.305572e-19 3.195050e-18 -9.672987e-02))
1320          	((5.605497e+00 2.450302e+02 2.786739e-18) (1.576074e+00 -1.023569e-02 8.504997e-20)) ((-5.426648e-16 -2.325098e-17 -3.299809e+01) (-2.305572e-19 3.195050e-18 -9.672987e-02))
1330          	((5.605497e+00 2.450302e+02 2.786739e-18) (1.576074e+00 -1.023569e-02 8.504998e-20)) ((-5.426648e-16 -2.325098e-17 -3.299809e+01) (-2.305572e-19 3.195050e-18 -9.672987e-02))
1340          	((5.605496e+00 2.450302e+02 2.786738e-18) (1.576074e+00 -1.023569e-02 8.504998e-20)) ((-5.426648e-16 -2.325099e-17 -3.299809e+01) (-2.305572e-19 3.195050e-18 -9.672988e-02))
1350          	((5.605496e+00 2.450302e+02 2.786738e-18) (1.576074e+00 -1.023569e-02 8.504999e-20)) ((-5.426649e-16 -2.325100e-17 -3.299809e+01) (-2.305572e-19 3.195050e-18 -9.672988e-02))
1360          	((5.605495e+00 2.450302e+02 2.786737e-18) (1.576074e+00 -1.023569e-02 8.505000e-20)) ((-5.426649e-16 -2.325101e-17 -3.299809e+01) (-2.305572e-19 3.195050e-18 -9.672988e-02))
1370          	((5.605495e+00 2.450302e+02 2.786737e-18) (1.576074e+00 -1.023569e-02 8.505000e-20)) ((-5.426649e-16 -2.325101e-17 -3.299809e+01) (-2.305572e-19 3.195050e-18 -9.672988e-02))
1380          	((5.605495e+00 2.450302e+02 2.786736e-18) (1.576074e+00 -1.023569e-02 8.505001e-20)) ((-5.426649e-16 -2.325102e-17 -3.299809e+01) (-2.305572e-19 3.195050e-18 -9.672988e-02))
1390          	((5.605495e+00 2.450302e+02 2.786736e-18) (1.576074e+00 -1.023569e-02 8.505001e-20)) ((-5.426649e-16 -2.325102e-17 -3.299810e+01) (-2.305572e-19 3.195050e-18 -9.672989e-02))
1400          	((5.605495e+00 2.450302e+02 2.786736e-18) (1.576074e+00 -1.023569e-02 8.505002e-20)) ((-5.426649e-16 -2.325103e-17 -3.299810e+01) (-2.305572e-19 3.195051e-18 -9.672989e-02))
1410          	((5.605495e+00 2.450302e+02 2.786736e-18) (1.576074e+00 -1.023569e-02 8.505002e-20)) ((-5.426649e-16 -2.325103e-17 -3.299810e+01) (-2.305572e-19 3.195051e-18 -9.672989e-02))
1420          	((5.605494e+00 2.450302e+02 2.786735e-18) (1.576074e+00 -1.023569e-02 8.505002e-20)) ((-5.426649e-16 -2.325104e-17 -3.299810e+01) (-2.305572e-19 3.195051e-18 -9.672989e-02))
1430          	((5.605494e+00 2.450302e+02 2.786735e-18) (1.576074e+00 -1.023569e-02 8.505003e-20)) ((-5.426650e-16 -2.325104e-17 -3.299810e+01) (-2.305572e-19 3.195051e-18 -9.672989e-02))
1440          	((5.605494e+00 2.450302e+02 2.786735e-18) (1.576074e+00 -1.023569e-02 8.505003e-20)) ((-5.426650e-16 -2.325105e-17 -3.299810e+01) (-2.305572e-19 3.195051e-18 -9.672989e-02))
1450          	((5.605494e+00 2.450302e+02 2.786734e-18) (1.576074e+00 -1.023569e-02 8.505004e-20)) ((-5.426650e-16 -2.325105e-17 -3.299810e+01) (-2.305572e-19 3.195051e-18 -9.672989e-02))
1460          	((5.605493e+00 2.450302e+02 2.786734e-18) (1.576074e+00 -1.023569e-02 8.505004e-20)) ((-5.426650e-16 -2.325106e-17 -3.299810e+01) (-2.305572e-19 3.195051e-18 -9.672989e-02))
1470          	((5.605493e+00 2.450302e+02 2.786734e-18) (1.576074e+00 -1.023569e-02 8.505004e-20)) ((-5.426650e-16 -2.325106e-17 -3.299810e+01) (-2.305572e-19 3.195051e-18 -9.672990e-02))
1480          	((5.605493e+00 2.450302e+02 2.786734e-18) (1.576074e+00 -1.023569e-02 8.505005e-20)) ((-5.426650e-16 -2.325106e-17 -3.299810e+01) (-2.305572e-19 3.195051e-18 -9.672990e-02))
1490          	((5.605493e+00 2.450302e+02 2.786733e-18) (1.576074e+00 -1.023569e-02 8.505005e-20)) ((-5.426650e-16 -2.325106e-17 -3.299810e+01) (-2.305572e-19 3.195051e-18 -9.672990e-02))
1500          	((5.605493e+00 2.450302e+02 2.786733e-18) (1.576074e+00 -1.023569e-02 8.505005e-20)) ((-5.426650e-16 -2.325107e-17 -3.299810e+01) (-2.305572e-19 3.195051e-18 -9.672990e-02))
1510          	((5.605493e+00 2.450302e+02 2.786733e-18) (1.576074e+00 -1.023569e-02 8.505005e-20)) ((-5.426650e-16 -2.325107e-17 -3.299810e+01) (-2.305572e-19 3.195051e-18 -9.672990e-02))
1520          	((5.605493e+00 2.450302e+02 2.786733e-18) (1.576074e+00 -1.023569e-02 8.505006e-20)) ((-5.426650e-16 -2.325107e-17 -3.299810e+01) (-2.305572e-19 3.195051e-18 -9.672990e-02))
1530          	((5.605493e+00 2.450302e+02 2.786733e-18) (1.576074e+00 -1.023570e-02 8.505006e-20)) ((-5.426650e-16 -2.325107e-17 -3.299810e+01) (-2.305572e-19 3.195051e-18 -9.672990e-02))
1540          	((5.605492e+00 2.450302e+02 2.786733e-18) (1.576074e+00 -1.023570e-02 8.505006e-20)) ((-5.426650e-16 -2.325108e-17 -3.299810e+01) (-2.305572e-19 3.195051e-18 -9.672990e-02))
1550          	((5.605492e+00 2.450302e+02 2.786732e-18) (1.576074e+00 -1.023570e-02 8.505006e-20)) ((-5.426650e-16 -2.325108e-17 -3.299810e+01) (-2.305572e-19 3.195051e-18 -9.672990e-02))
1560          	((5.605492e+00 2.450302e+02 2.786732e-18) (1.576074e+00 -1.023570e-02 8.505006e-20)) ((-5.426650e-16 -2.325108e-17 -3.299810e+01) (-2.305572e-19 3.195051e-18 -9.672990e-02))
1570          	((5.605492e+00 2.450302e+02 2.786732e-18) (1.576074e+00 -1.023570e-02 8.505007e-20)) ((-5.426651e-16 -2.325108e-17 -3.299810e+01) (-2.305572e-19 3.195051e-18 -9.672990e-02))